<?xml version="1.0" encoding="UTF-8"?>

<!-- generated on 04/30/19 22:45:27 by Eclipse SUMO GUI Version 1.1.0
<configuration xmlns:xsi="http://www.w3.org/2001/XMLSchema-instance" xsi:noNamespaceSchemaLocation="http://sumo.dlr.de/xsd/sumoConfiguration.xsd">

    <input>
        <net-file value="cross.net.xml"/>
        <route-files value="input_routes.rou.xml"/>
        <additional-files value="cross.add.xml"/>
    </input>

    <time>
        <begin value="0"/>
        <end value="2000"/>
    </time>

    <traci_server>
        <remote-port value="60626"/>
    </traci_server>

    <gui_only>
        <quit-on-end value="true"/>
        <start value="true"/>
    </gui_only>

</configuration>
-->

<detector xmlns:xsi="http://www.w3.org/2001/XMLSchema-instance" xsi:noNamespaceSchemaLocation="http://sumo.dlr.de/xsd/det_e1_file.xsd">
    <interval begin="0.00" end="500.00" id="det_11" nVehContrib="42" flow="302.40" occupancy="27.35" speed="1.56" length="5.00" nVehEntered="43"/>
    <interval begin="0.00" end="500.00" id="det_12" nVehContrib="34" flow="244.80" occupancy="68.30" speed="4.88" length="5.00" nVehEntered="35"/>
    <interval begin="0.00" end="500.00" id="det_21" nVehContrib="35" flow="252.00" occupancy="22.46" speed="1.56" length="5.00" nVehEntered="35"/>
    <interval begin="0.00" end="500.00" id="det_22" nVehContrib="29" flow="208.80" occupancy="74.00" speed="5.07" length="5.00" nVehEntered="29"/>
    <interval begin="0.00" end="500.00" id="det_31" nVehContrib="44" flow="316.80" occupancy="28.63" speed="1.56" length="5.00" nVehEntered="45"/>
    <interval begin="0.00" end="500.00" id="det_32" nVehContrib="34" flow="244.80" occupancy="65.37" speed="5.60" length="5.00" nVehEntered="35"/>
    <interval begin="0.00" end="500.00" id="det_41" nVehContrib="45" flow="324.00" occupancy="28.87" speed="1.56" length="5.00" nVehEntered="45"/>
    <interval begin="0.00" end="500.00" id="det_42" nVehContrib="43" flow="309.60" occupancy="70.74" speed="5.94" length="5.00" nVehEntered="43"/>
    <interval begin="500.00" end="1000.00" id="det_11" nVehContrib="40" flow="288.00" occupancy="25.27" speed="1.56" length="5.00" nVehEntered="39"/>
    <interval begin="500.00" end="1000.00" id="det_12" nVehContrib="41" flow="295.20" occupancy="75.20" speed="4.94" length="5.00" nVehEntered="40"/>
    <interval begin="500.00" end="1000.00" id="det_21" nVehContrib="44" flow="316.80" occupancy="28.23" speed="1.56" length="5.00" nVehEntered="44"/>
    <interval begin="500.00" end="1000.00" id="det_22" nVehContrib="43" flow="309.60" occupancy="87.17" speed="4.83" length="5.00" nVehEntered="44"/>
    <interval begin="500.00" end="1000.00" id="det_31" nVehContrib="38" flow="273.60" occupancy="23.98" speed="1.56" length="5.00" nVehEntered="37"/>
    <interval begin="500.00" end="1000.00" id="det_32" nVehContrib="36" flow="259.20" occupancy="76.75" speed="4.73" length="5.00" nVehEntered="36"/>
    <interval begin="500.00" end="1000.00" id="det_41" nVehContrib="46" flow="331.20" occupancy="29.52" speed="1.56" length="5.00" nVehEntered="46"/>
    <interval begin="500.00" end="1000.00" id="det_42" nVehContrib="39" flow="280.80" occupancy="67.17" speed="5.28" length="5.00" nVehEntered="40"/>
    <interval begin="1000.00" end="1500.00" id="det_11" nVehContrib="35" flow="252.00" occupancy="22.46" speed="1.56" length="5.00" nVehEntered="35"/>
    <interval begin="1000.00" end="1500.00" id="det_12" nVehContrib="42" flow="302.40" occupancy="70.36" speed="5.52" length="5.00" nVehEntered="42"/>
    <interval begin="1000.00" end="1500.00" id="det_21" nVehContrib="50" flow="360.00" occupancy="32.08" speed="1.56" length="5.00" nVehEntered="50"/>
    <interval begin="1000.00" end="1500.00" id="det_22" nVehContrib="35" flow="252.00" occupancy="89.13" speed="5.00" length="5.00" nVehEntered="34"/>
    <interval begin="1000.00" end="1500.00" id="det_31" nVehContrib="42" flow="302.40" occupancy="26.95" speed="1.56" length="5.00" nVehEntered="42"/>
    <interval begin="1000.00" end="1500.00" id="det_32" nVehContrib="44" flow="316.80" occupancy="78.43" speed="5.39" length="5.00" nVehEntered="44"/>
    <interval begin="1000.00" end="1500.00" id="det_41" nVehContrib="40" flow="288.00" occupancy="25.67" speed="1.56" length="5.00" nVehEntered="40"/>
    <interval begin="1000.00" end="1500.00" id="det_42" nVehContrib="46" flow="331.20" occupancy="66.58" speed="5.28" length="5.00" nVehEntered="46"/>
    <interval begin="1500.00" end="2000.00" id="det_11" nVehContrib="43" flow="309.60" occupancy="27.59" speed="1.56" length="5.00" nVehEntered="43"/>
    <interval begin="1500.00" end="2000.00" id="det_12" nVehContrib="33" flow="237.60" occupancy="70.01" speed="5.67" length="5.00" nVehEntered="34"/>
    <interval begin="1500.00" end="2000.00" id="det_21" nVehContrib="44" flow="316.80" occupancy="28.23" speed="1.56" length="5.00" nVehEntered="44"/>
    <interval begin="1500.00" end="2000.00" id="det_22" nVehContrib="53" flow="381.60" occupancy="72.75" speed="5.85" length="5.00" nVehEntered="54"/>
    <interval begin="1500.00" end="2000.00" id="det_31" nVehContrib="44" flow="316.80" occupancy="28.23" speed="1.56" length="5.00" nVehEntered="44"/>
    <interval begin="1500.00" end="2000.00" id="det_32" nVehContrib="47" flow="338.40" occupancy="84.22" speed="5.64" length="5.00" nVehEntered="47"/>
    <interval begin="1500.00" end="2000.00" id="det_41" nVehContrib="35" flow="252.00" occupancy="22.46" speed="1.56" length="5.00" nVehEntered="35"/>
    <interval begin="1500.00" end="2000.00" id="det_42" nVehContrib="38" flow="273.60" occupancy="84.83" speed="5.38" length="5.00" nVehEntered="37"/>
    <interval begin="2000.00" end="2500.00" id="det_11" nVehContrib="44" flow="316.80" occupancy="28.23" speed="1.56" length="5.00" nVehEntered="44"/>
    <interval begin="2000.00" end="2500.00" id="det_12" nVehContrib="42" flow="302.40" occupancy="76.18" speed="4.94" length="5.00" nVehEntered="42"/>
    <interval begin="2000.00" end="2500.00" id="det_21" nVehContrib="41" flow="295.20" occupancy="26.31" speed="1.56" length="5.00" nVehEntered="41"/>
    <interval begin="2000.00" end="2500.00" id="det_22" nVehContrib="37" flow="266.40" occupancy="81.67" speed="4.78" length="5.00" nVehEntered="37"/>
    <interval begin="2000.00" end="2500.00" id="det_31" nVehContrib="45" flow="324.00" occupancy="28.88" speed="1.56" length="5.00" nVehEntered="45"/>
    <interval begin="2000.00" end="2500.00" id="det_32" nVehContrib="47" flow="338.40" occupancy="78.34" speed="5.11" length="5.00" nVehEntered="47"/>
    <interval begin="2000.00" end="2500.00" id="det_41" nVehContrib="38" flow="273.60" occupancy="24.38" speed="1.56" length="5.00" nVehEntered="38"/>
    <interval begin="2000.00" end="2500.00" id="det_42" nVehContrib="36" flow="259.20" occupancy="58.75" speed="4.98" length="5.00" nVehEntered="36"/>
    <interval begin="2500.00" end="3000.00" id="det_11" nVehContrib="39" flow="280.80" occupancy="25.03" speed="1.56" length="5.00" nVehEntered="39"/>
    <interval begin="2500.00" end="3000.00" id="det_12" nVehContrib="38" flow="273.60" occupancy="88.67" speed="4.89" length="5.00" nVehEntered="38"/>
    <interval begin="2500.00" end="3000.00" id="det_21" nVehContrib="45" flow="324.00" occupancy="29.28" speed="1.56" length="5.00" nVehEntered="46"/>
    <interval begin="2500.00" end="3000.00" id="det_22" nVehContrib="58" flow="417.60" occupancy="79.54" speed="5.45" length="5.00" nVehEntered="57"/>
    <interval begin="2500.00" end="3000.00" id="det_31" nVehContrib="45" flow="324.00" occupancy="28.88" speed="1.56" length="5.00" nVehEntered="45"/>
    <interval begin="2500.00" end="3000.00" id="det_32" nVehContrib="37" flow="266.40" occupancy="81.18" speed="4.81" length="5.00" nVehEntered="37"/>
    <interval begin="2500.00" end="3000.00" id="det_41" nVehContrib="38" flow="273.60" occupancy="24.38" speed="1.56" length="5.00" nVehEntered="38"/>
    <interval begin="2500.00" end="3000.00" id="det_42" nVehContrib="32" flow="230.40" occupancy="66.49" speed="4.72" length="5.00" nVehEntered="33"/>
    <interval begin="3000.00" end="3500.00" id="det_11" nVehContrib="35" flow="252.00" occupancy="22.46" speed="1.56" length="5.00" nVehEntered="35"/>
    <interval begin="3000.00" end="3500.00" id="det_12" nVehContrib="44" flow="316.80" occupancy="73.41" speed="5.16" length="5.00" nVehEntered="44"/>
    <interval begin="3000.00" end="3500.00" id="det_21" nVehContrib="48" flow="345.60" occupancy="30.40" speed="1.56" length="5.00" nVehEntered="47"/>
    <interval begin="3000.00" end="3500.00" id="det_22" nVehContrib="35" flow="252.00" occupancy="84.91" speed="5.04" length="5.00" nVehEntered="36"/>
    <interval begin="3000.00" end="3500.00" id="det_31" nVehContrib="48" flow="345.60" occupancy="30.80" speed="1.56" length="5.00" nVehEntered="48"/>
    <interval begin="3000.00" end="3500.00" id="det_32" nVehContrib="53" flow="381.60" occupancy="84.72" speed="5.38" length="5.00" nVehEntered="53"/>
    <interval begin="3000.00" end="3500.00" id="det_41" nVehContrib="34" flow="244.80" occupancy="21.82" speed="1.56" length="5.00" nVehEntered="34"/>
    <interval begin="3000.00" end="3500.00" id="det_42" nVehContrib="35" flow="252.00" occupancy="75.23" speed="4.67" length="5.00" nVehEntered="34"/>
    <interval begin="3500.00" end="4000.00" id="det_11" nVehContrib="37" flow="266.40" occupancy="23.94" speed="1.56" length="5.00" nVehEntered="38"/>
    <interval begin="3500.00" end="4000.00" id="det_12" nVehContrib="34" flow="244.80" occupancy="80.53" speed="4.84" length="5.00" nVehEntered="34"/>
    <interval begin="3500.00" end="4000.00" id="det_21" nVehContrib="44" flow="316.80" occupancy="28.23" speed="1.56" length="5.00" nVehEntered="44"/>
    <interval begin="3500.00" end="4000.00" id="det_22" nVehContrib="42" flow="302.40" occupancy="87.64" speed="5.01" length="5.00" nVehEntered="41"/>
    <interval begin="3500.00" end="4000.00" id="det_31" nVehContrib="39" flow="280.80" occupancy="25.23" speed="1.56" length="5.00" nVehEntered="40"/>
    <interval begin="3500.00" end="4000.00" id="det_32" nVehContrib="34" flow="244.80" occupancy="80.89" speed="4.90" length="5.00" nVehEntered="34"/>
    <interval begin="3500.00" end="4000.00" id="det_41" nVehContrib="46" flow="331.20" occupancy="29.52" speed="1.56" length="5.00" nVehEntered="46"/>
    <interval begin="3500.00" end="4000.00" id="det_42" nVehContrib="52" flow="374.40" occupancy="70.40" speed="5.87" length="5.00" nVehEntered="53"/>
    <interval begin="4000.00" end="4500.00" id="det_11" nVehContrib="39" flow="280.80" occupancy="24.82" speed="1.56" length="5.00" nVehEntered="38"/>
    <interval begin="4000.00" end="4500.00" id="det_12" nVehContrib="37" flow="266.40" occupancy="87.41" speed="4.82" length="5.00" nVehEntered="37"/>
    <interval begin="4000.00" end="4500.00" id="det_21" nVehContrib="51" flow="367.20" occupancy="33.32" speed="1.56" length="5.00" nVehEntered="52"/>
    <interval begin="4000.00" end="4500.00" id="det_22" nVehContrib="43" flow="309.60" occupancy="87.46" speed="5.07" length="5.00" nVehEntered="44"/>
    <interval begin="4000.00" end="4500.00" id="det_31" nVehContrib="37" flow="266.40" occupancy="23.54" speed="1.56" length="5.00" nVehEntered="36"/>
    <interval begin="4000.00" end="4500.00" id="det_32" nVehContrib="41" flow="295.20" occupancy="60.17" speed="4.79" length="5.00" nVehEntered="40"/>
    <interval begin="4000.00" end="4500.00" id="det_41" nVehContrib="45" flow="324.00" occupancy="29.47" speed="1.56" length="5.00" nVehEntered="46"/>
    <interval begin="4000.00" end="4500.00" id="det_42" nVehContrib="36" flow="259.20" occupancy="80.72" speed="5.86" length="5.00" nVehEntered="36"/>
    <interval begin="4500.00" end="5000.00" id="det_11" nVehContrib="51" flow="367.20" occupancy="32.72" speed="1.56" length="5.00" nVehEntered="51"/>
    <interval begin="4500.00" end="5000.00" id="det_12" nVehContrib="51" flow="367.20" occupancy="75.83" speed="5.72" length="5.00" nVehEntered="51"/>
    <interval begin="4500.00" end="5000.00" id="det_21" nVehContrib="39" flow="280.80" occupancy="24.42" speed="1.56" length="5.00" nVehEntered="38"/>
    <interval begin="4500.00" end="5000.00" id="det_22" nVehContrib="57" flow="410.40" occupancy="83.85" speed="5.56" length="5.00" nVehEntered="56"/>
    <interval begin="4500.00" end="5000.00" id="det_31" nVehContrib="40" flow="288.00" occupancy="25.67" speed="1.56" length="5.00" nVehEntered="40"/>
    <interval begin="4500.00" end="5000.00" id="det_32" nVehContrib="35" flow="252.00" occupancy="75.30" speed="5.59" length="5.00" nVehEntered="36"/>
    <interval begin="4500.00" end="5000.00" id="det_41" nVehContrib="33" flow="237.60" occupancy="20.57" speed="1.56" length="5.00" nVehEntered="32"/>
    <interval begin="4500.00" end="5000.00" id="det_42" nVehContrib="37" flow="266.40" occupancy="89.04" speed="4.78" length="5.00" nVehEntered="37"/>
    <interval begin="5000.00" end="5500.00" id="det_11" nVehContrib="43" flow="309.60" occupancy="27.59" speed="1.56" length="5.00" nVehEntered="43"/>
    <interval begin="5000.00" end="5500.00" id="det_12" nVehContrib="40" flow="288.00" occupancy="84.04" speed="4.92" length="5.00" nVehEntered="40"/>
    <interval begin="5000.00" end="5500.00" id="det_21" nVehContrib="40" flow="288.00" occupancy="26.27" speed="1.56" length="5.00" nVehEntered="41"/>
    <interval begin="5000.00" end="5500.00" id="det_22" nVehContrib="42" flow="302.40" occupancy="68.90" speed="5.01" length="5.00" nVehEntered="43"/>
    <interval begin="5000.00" end="5500.00" id="det_31" nVehContrib="43" flow="309.60" occupancy="28.19" speed="1.56" length="5.00" nVehEntered="44"/>
    <interval begin="5000.00" end="5500.00" id="det_32" nVehContrib="49" flow="352.80" occupancy="78.54" speed="5.09" length="5.00" nVehEntered="49"/>
    <interval begin="5000.00" end="5500.00" id="det_41" nVehContrib="44" flow="316.80" occupancy="28.23" speed="1.56" length="5.00" nVehEntered="44"/>
    <interval begin="5000.00" end="5500.00" id="det_42" nVehContrib="45" flow="324.00" occupancy="78.72" speed="5.20" length="5.00" nVehEntered="45"/>
    <interval begin="5500.00" end="6000.00" id="det_11" nVehContrib="38" flow="273.60" occupancy="24.98" speed="1.56" length="5.00" nVehEntered="39"/>
    <interval begin="5500.00" end="6000.00" id="det_12" nVehContrib="45" flow="324.00" occupancy="77.37" speed="5.17" length="5.00" nVehEntered="44"/>
    <interval begin="5500.00" end="6000.00" id="det_21" nVehContrib="44" flow="316.80" occupancy="28.23" speed="1.56" length="5.00" nVehEntered="44"/>
    <interval begin="5500.00" end="6000.00" id="det_22" nVehContrib="44" flow="316.80" occupancy="83.69" speed="5.47" length="5.00" nVehEntered="44"/>
    <interval begin="5500.00" end="6000.00" id="det_31" nVehContrib="43" flow="309.60" occupancy="27.59" speed="1.56" length="5.00" nVehEntered="43"/>
    <interval begin="5500.00" end="6000.00" id="det_32" nVehContrib="43" flow="309.60" occupancy="65.08" speed="5.90" length="5.00" nVehEntered="43"/>
    <interval begin="5500.00" end="6000.00" id="det_41" nVehContrib="36" flow="259.20" occupancy="23.70" speed="1.56" length="5.00" nVehEntered="37"/>
    <interval begin="5500.00" end="6000.00" id="det_42" nVehContrib="33" flow="237.60" occupancy="81.16" speed="4.90" length="5.00" nVehEntered="33"/>
    <interval begin="6000.00" end="6500.00" id="det_11" nVehContrib="43" flow="309.60" occupancy="27.19" speed="1.56" length="5.00" nVehEntered="43"/>
    <interval begin="6000.00" end="6500.00" id="det_12" nVehContrib="46" flow="331.20" occupancy="81.11" speed="5.35" length="5.00" nVehEntered="46"/>
    <interval begin="6000.00" end="6500.00" id="det_21" nVehContrib="42" flow="302.40" occupancy="26.75" speed="1.56" length="5.00" nVehEntered="42"/>
    <interval begin="6000.00" end="6500.00" id="det_22" nVehContrib="39" flow="280.80" occupancy="70.61" speed="5.34" length="5.00" nVehEntered="39"/>
    <interval begin="6000.00" end="6500.00" id="det_31" nVehContrib="38" flow="273.60" occupancy="23.78" speed="1.56" length="5.00" nVehEntered="37"/>
    <interval begin="6000.00" end="6500.00" id="det_32" nVehContrib="38" flow="273.60" occupancy="61.04" speed="5.36" length="5.00" nVehEntered="38"/>
    <interval begin="6000.00" end="6500.00" id="det_41" nVehContrib="44" flow="316.80" occupancy="27.63" speed="1.56" length="5.00" nVehEntered="43"/>
    <interval begin="6000.00" end="6500.00" id="det_42" nVehContrib="36" flow="259.20" occupancy="81.69" speed="4.86" length="5.00" nVehEntered="36"/>
    <interval begin="6500.00" end="7000.00" id="det_11" nVehContrib="49" flow="352.80" occupancy="31.44" speed="1.56" length="5.00" nVehEntered="49"/>
    <interval begin="6500.00" end="7000.00" id="det_12" nVehContrib="36" flow="259.20" occupancy="82.64" speed="4.98" length="5.00" nVehEntered="37"/>
    <interval begin="6500.00" end="7000.00" id="det_21" nVehContrib="35" flow="252.00" occupancy="22.26" speed="1.56" length="5.00" nVehEntered="35"/>
    <interval begin="6500.00" end="7000.00" id="det_22" nVehContrib="43" flow="309.60" occupancy="76.63" speed="4.58" length="5.00" nVehEntered="42"/>
    <interval begin="6500.00" end="7000.00" id="det_31" nVehContrib="44" flow="316.80" occupancy="28.43" speed="1.56" length="5.00" nVehEntered="45"/>
    <interval begin="6500.00" end="7000.00" id="det_32" nVehContrib="41" flow="295.20" occupancy="73.73" speed="5.36" length="5.00" nVehEntered="41"/>
    <interval begin="6500.00" end="7000.00" id="det_41" nVehContrib="39" flow="280.80" occupancy="25.22" speed="1.56" length="5.00" nVehEntered="40"/>
    <interval begin="6500.00" end="7000.00" id="det_42" nVehContrib="48" flow="345.60" occupancy="82.97" speed="5.43" length="5.00" nVehEntered="48"/>
    <interval begin="7000.00" end="7500.00" id="det_11" nVehContrib="46" flow="331.20" occupancy="29.32" speed="1.56" length="5.00" nVehEntered="45"/>
    <interval begin="7000.00" end="7500.00" id="det_12" nVehContrib="51" flow="367.20" occupancy="85.56" speed="5.15" length="5.00" nVehEntered="50"/>
    <interval begin="7000.00" end="7500.00" id="det_21" nVehContrib="39" flow="280.80" occupancy="24.82" speed="1.56" length="5.00" nVehEntered="38"/>
    <interval begin="7000.00" end="7500.00" id="det_22" nVehContrib="34" flow="244.80" occupancy="74.13" speed="5.16" length="5.00" nVehEntered="35"/>
    <interval begin="7000.00" end="7500.00" id="det_31" nVehContrib="37" flow="266.40" occupancy="23.54" speed="1.56" length="5.00" nVehEntered="36"/>
    <interval begin="7000.00" end="7500.00" id="det_32" nVehContrib="40" flow="288.00" occupancy="72.95" speed="5.35" length="5.00" nVehEntered="40"/>
    <interval begin="7000.00" end="7500.00" id="det_41" nVehContrib="49" flow="352.80" occupancy="31.24" speed="1.56" length="5.00" nVehEntered="48"/>
    <interval begin="7000.00" end="7500.00" id="det_42" nVehContrib="44" flow="316.80" occupancy="77.27" speed="5.61" length="5.00" nVehEntered="44"/>
    <interval begin="7500.00" end="8000.00" id="det_11" nVehContrib="37" flow="266.40" occupancy="24.14" speed="1.56" length="5.00" nVehEntered="38"/>
    <interval begin="7500.00" end="8000.00" id="det_12" nVehContrib="35" flow="252.00" occupancy="80.75" speed="5.32" length="5.00" nVehEntered="35"/>
    <interval begin="7500.00" end="8000.00" id="det_21" nVehContrib="44" flow="316.80" occupancy="28.23" speed="1.56" length="5.00" nVehEntered="44"/>
    <interval begin="7500.00" end="8000.00" id="det_22" nVehContrib="33" flow="237.60" occupancy="90.09" speed="4.86" length="5.00" nVehEntered="33"/>
    <interval begin="7500.00" end="8000.00" id="det_31" nVehContrib="42" flow="302.40" occupancy="26.95" speed="1.56" length="5.00" nVehEntered="42"/>
    <interval begin="7500.00" end="8000.00" id="det_32" nVehContrib="47" flow="338.40" occupancy="67.57" speed="5.86" length="5.00" nVehEntered="47"/>
    <interval begin="7500.00" end="8000.00" id="det_41" nVehContrib="39" flow="280.80" occupancy="25.42" speed="1.56" length="5.00" nVehEntered="40"/>
    <interval begin="7500.00" end="8000.00" id="det_42" nVehContrib="42" flow="302.40" occupancy="71.70" speed="5.26" length="5.00" nVehEntered="42"/>
    <interval begin="8000.00" end="8500.00" id="det_11" nVehContrib="46" flow="331.20" occupancy="29.32" speed="1.56" length="5.00" nVehEntered="46"/>
    <interval begin="8000.00" end="8500.00" id="det_12" nVehContrib="40" flow="288.00" occupancy="76.42" speed="5.06" length="5.00" nVehEntered="41"/>
    <interval begin="8000.00" end="8500.00" id="det_21" nVehContrib="41" flow="295.20" occupancy="26.51" speed="1.56" length="5.00" nVehEntered="42"/>
    <interval begin="8000.00" end="8500.00" id="det_22" nVehContrib="37" flow="266.40" occupancy="89.09" speed="4.56" length="5.00" nVehEntered="37"/>
    <interval begin="8000.00" end="8500.00" id="det_31" nVehContrib="35" flow="252.00" occupancy="22.66" speed="1.56" length="5.00" nVehEntered="36"/>
    <interval begin="8000.00" end="8500.00" id="det_32" nVehContrib="35" flow="252.00" occupancy="64.52" speed="5.06" length="5.00" nVehEntered="35"/>
    <interval begin="8000.00" end="8500.00" id="det_41" nVehContrib="45" flow="324.00" occupancy="28.48" speed="1.56" length="5.00" nVehEntered="44"/>
    <interval begin="8000.00" end="8500.00" id="det_42" nVehContrib="46" flow="331.20" occupancy="73.13" speed="5.19" length="5.00" nVehEntered="46"/>
    <interval begin="8500.00" end="9000.00" id="det_11" nVehContrib="39" flow="280.80" occupancy="24.83" speed="1.56" length="5.00" nVehEntered="38"/>
    <interval begin="8500.00" end="9000.00" id="det_12" nVehContrib="46" flow="331.20" occupancy="78.12" speed="5.17" length="5.00" nVehEntered="45"/>
    <interval begin="8500.00" end="9000.00" id="det_21" nVehContrib="41" flow="295.20" occupancy="26.11" speed="1.56" length="5.00" nVehEntered="40"/>
    <interval begin="8500.00" end="9000.00" id="det_22" nVehContrib="48" flow="345.60" occupancy="86.19" speed="5.04" length="5.00" nVehEntered="48"/>
    <interval begin="8500.00" end="9000.00" id="det_31" nVehContrib="40" flow="288.00" occupancy="25.47" speed="1.56" length="5.00" nVehEntered="39"/>
    <interval begin="8500.00" end="9000.00" id="det_32" nVehContrib="34" flow="244.80" occupancy="80.42" speed="4.88" length="5.00" nVehEntered="34"/>
    <interval begin="8500.00" end="9000.00" id="det_41" nVehContrib="49" flow="352.80" occupancy="31.44" speed="1.56" length="5.00" nVehEntered="49"/>
    <interval begin="8500.00" end="9000.00" id="det_42" nVehContrib="43" flow="309.60" occupancy="84.28" speed="4.98" length="5.00" nVehEntered="43"/>
    <interval begin="9000.00" end="9500.00" id="det_11" nVehContrib="40" flow="288.00" occupancy="25.67" speed="1.56" length="5.00" nVehEntered="40"/>
    <interval begin="9000.00" end="9500.00" id="det_12" nVehContrib="41" flow="295.20" occupancy="85.96" speed="5.63" length="5.00" nVehEntered="42"/>
    <interval begin="9000.00" end="9500.00" id="det_21" nVehContrib="46" flow="331.20" occupancy="29.52" speed="1.56" length="5.00" nVehEntered="46"/>
    <interval begin="9000.00" end="9500.00" id="det_22" nVehContrib="52" flow="374.40" occupancy="80.62" speed="5.47" length="5.00" nVehEntered="52"/>
    <interval begin="9000.00" end="9500.00" id="det_31" nVehContrib="48" flow="345.60" occupancy="30.80" speed="1.56" length="5.00" nVehEntered="48"/>
    <interval begin="9000.00" end="9500.00" id="det_32" nVehContrib="48" flow="345.60" occupancy="86.01" speed="5.12" length="5.00" nVehEntered="48"/>
    <interval begin="9000.00" end="9500.00" id="det_41" nVehContrib="32" flow="230.40" occupancy="20.53" speed="1.56" length="5.00" nVehEntered="32"/>
    <interval begin="9000.00" end="9500.00" id="det_42" nVehContrib="34" flow="244.80" occupancy="68.56" speed="5.21" length="5.00" nVehEntered="34"/>
    <interval begin="9500.00" end="10000.00" id="det_11" nVehContrib="53" flow="381.60" occupancy="34.01" speed="1.56" length="5.00" nVehEntered="53"/>
    <interval begin="9500.00" end="10000.00" id="det_12" nVehContrib="38" flow="273.60" occupancy="88.78" speed="4.76" length="5.00" nVehEntered="38"/>
    <interval begin="9500.00" end="10000.00" id="det_21" nVehContrib="35" flow="252.00" occupancy="22.46" speed="1.56" length="5.00" nVehEntered="35"/>
    <interval begin="9500.00" end="10000.00" id="det_22" nVehContrib="42" flow="302.40" occupancy="71.79" speed="5.68" length="5.00" nVehEntered="41"/>
    <interval begin="9500.00" end="10000.00" id="det_31" nVehContrib="36" flow="259.20" occupancy="23.70" speed="1.56" length="5.00" nVehEntered="37"/>
    <interval begin="9500.00" end="10000.00" id="det_32" nVehContrib="37" flow="266.40" occupancy="89.20" speed="4.94" length="5.00" nVehEntered="37"/>
    <interval begin="9500.00" end="10000.00" id="det_41" nVehContrib="43" flow="309.60" occupancy="28.19" speed="1.56" length="5.00" nVehEntered="44"/>
    <interval begin="9500.00" end="10000.00" id="det_42" nVehContrib="44" flow="316.80" occupancy="61.75" speed="5.56" length="5.00" nVehEntered="44"/>
    <interval begin="10000.00" end="10500.00" id="det_11" nVehContrib="47" flow="338.40" occupancy="30.16" speed="1.56" length="5.00" nVehEntered="47"/>
    <interval begin="10000.00" end="10500.00" id="det_12" nVehContrib="51" flow="367.20" occupancy="85.22" speed="5.22" length="5.00" nVehEntered="51"/>
    <interval begin="10000.00" end="10500.00" id="det_21" nVehContrib="38" flow="273.60" occupancy="24.38" speed="1.56" length="5.00" nVehEntered="38"/>
    <interval begin="10000.00" end="10500.00" id="det_22" nVehContrib="36" flow="259.20" occupancy="66.71" speed="5.17" length="5.00" nVehEntered="37"/>
    <interval begin="10000.00" end="10500.00" id="det_31" nVehContrib="35" flow="252.00" occupancy="21.86" speed="1.56" length="5.00" nVehEntered="34"/>
    <interval begin="10000.00" end="10500.00" id="det_32" nVehContrib="40" flow="288.00" occupancy="73.73" speed="4.77" length="5.00" nVehEntered="40"/>
    <interval begin="10000.00" end="10500.00" id="det_41" nVehContrib="45" flow="324.00" occupancy="28.28" speed="1.56" length="5.00" nVehEntered="44"/>
    <interval begin="10000.00" end="10500.00" id="det_42" nVehContrib="43" flow="309.60" occupancy="80.13" speed="5.26" length="5.00" nVehEntered="43"/>
    <interval begin="10500.00" end="11000.00" id="det_11" nVehContrib="44" flow="316.80" occupancy="28.63" speed="1.56" length="5.00" nVehEntered="45"/>
    <interval begin="10500.00" end="11000.00" id="det_12" nVehContrib="43" flow="309.60" occupancy="80.58" speed="4.72" length="5.00" nVehEntered="43"/>
    <interval begin="10500.00" end="11000.00" id="det_21" nVehContrib="35" flow="252.00" occupancy="22.46" speed="1.56" length="5.00" nVehEntered="35"/>
    <interval begin="10500.00" end="11000.00" id="det_22" nVehContrib="36" flow="259.20" occupancy="76.83" speed="5.07" length="5.00" nVehEntered="35"/>
    <interval begin="10500.00" end="11000.00" id="det_31" nVehContrib="44" flow="316.80" occupancy="28.63" speed="1.56" length="5.00" nVehEntered="45"/>
    <interval begin="10500.00" end="11000.00" id="det_32" nVehContrib="43" flow="309.60" occupancy="78.08" speed="4.88" length="5.00" nVehEntered="42"/>
    <interval begin="10500.00" end="11000.00" id="det_41" nVehContrib="43" flow="309.60" occupancy="27.59" speed="1.56" length="5.00" nVehEntered="43"/>
    <interval begin="10500.00" end="11000.00" id="det_42" nVehContrib="46" flow="331.20" occupancy="86.32" speed="4.88" length="5.00" nVehEntered="46"/>
    <interval begin="11000.00" end="11500.00" id="det_11" nVehContrib="45" flow="324.00" occupancy="28.68" speed="1.56" length="5.00" nVehEntered="45"/>
    <interval begin="11000.00" end="11500.00" id="det_12" nVehContrib="55" flow="396.00" occupancy="77.86" speed="5.40" length="5.00" nVehEntered="55"/>
    <interval begin="11000.00" end="11500.00" id="det_21" nVehContrib="49" flow="352.80" occupancy="31.44" speed="1.56" length="5.00" nVehEntered="49"/>
    <interval begin="11000.00" end="11500.00" id="det_22" nVehContrib="48" flow="345.60" occupancy="74.49" speed="5.08" length="5.00" nVehEntered="49"/>
    <interval begin="11000.00" end="11500.00" id="det_31" nVehContrib="40" flow="288.00" occupancy="25.27" speed="1.56" length="5.00" nVehEntered="39"/>
    <interval begin="11000.00" end="11500.00" id="det_32" nVehContrib="41" flow="295.20" occupancy="84.26" speed="5.19" length="5.00" nVehEntered="41"/>
    <interval begin="11000.00" end="11500.00" id="det_41" nVehContrib="33" flow="237.60" occupancy="21.18" speed="1.56" length="5.00" nVehEntered="33"/>
    <interval begin="11000.00" end="11500.00" id="det_42" nVehContrib="33" flow="237.60" occupancy="71.43" speed="4.77" length="5.00" nVehEntered="33"/>
    <interval begin="11500.00" end="12000.00" id="det_11" nVehContrib="34" flow="244.80" occupancy="21.62" speed="1.56" length="5.00" nVehEntered="33"/>
    <interval begin="11500.00" end="12000.00" id="det_12" nVehContrib="43" flow="309.60" occupancy="60.85" speed="5.62" length="5.00" nVehEntered="42"/>
    <interval begin="11500.00" end="12000.00" id="det_21" nVehContrib="51" flow="367.20" occupancy="32.73" speed="1.56" length="5.00" nVehEntered="51"/>
    <interval begin="11500.00" end="12000.00" id="det_22" nVehContrib="39" flow="280.80" occupancy="84.63" speed="4.70" length="5.00" nVehEntered="39"/>
    <interval begin="11500.00" end="12000.00" id="det_31" nVehContrib="33" flow="237.60" occupancy="21.18" speed="1.56" length="5.00" nVehEntered="33"/>
    <interval begin="11500.00" end="12000.00" id="det_32" nVehContrib="33" flow="237.60" occupancy="76.42" speed="5.22" length="5.00" nVehEntered="34"/>
    <interval begin="11500.00" end="12000.00" id="det_41" nVehContrib="50" flow="360.00" occupancy="32.08" speed="1.56" length="5.00" nVehEntered="50"/>