<?xml version="1.0" encoding="UTF-8"?>

<!-- generated on 04/08/19 09:02:11 by Eclipse SUMO GUI Version 1.1.0
<configuration xmlns:xsi="http://www.w3.org/2001/XMLSchema-instance" xsi:noNamespaceSchemaLocation="http://sumo.dlr.de/xsd/sumoConfiguration.xsd">

    <input>
        <net-file value="cross.net.xml"/>
        <route-files value="input_routes.rou.xml"/>
        <additional-files value="cross.add.xml"/>
    </input>

    <output>
        <tripinfo-output value="tripinfo.xml"/>
    </output>

    <time>
        <begin value="0"/>
        <end value="2000"/>
    </time>

    <traci_server>
        <remote-port value="59210"/>
    </traci_server>

</configuration>
-->

<tripinfos xmlns:xsi="http://www.w3.org/2001/XMLSchema-instance" xsi:noNamespaceSchemaLocation="http://sumo.dlr.de/xsd/tripinfo_file.xsd">
    <tripinfo id="vehicle_1" depart="0.00" departLane="3si_0" departPos="5.10" departSpeed="0.00" departDelay="0.00" arrival="73.00" arrivalLane="1o_0" arrivalPos="400.00" arrivalSpeed="13.03" duration="73.00" routeLength="809.23" waitingTime="0.00" waitingCount="0" stopTime="0.00" timeLoss="9.72" rerouteNo="0" devices="tripinfo_vehicle_1" vType="SUMO_DEFAULT_TYPE" speedFactor="0.94" vaporized=""/>
    <tripinfo id="vehicle_0" depart="0.00" departLane="1si_0" departPos="5.10" departSpeed="0.00" departDelay="0.00" arrival="99.00" arrivalLane="4o_0" arrivalPos="400.00" arrivalSpeed="14.72" duration="99.00" routeLength="809.22" waitingTime="25.00" waitingCount="1" stopTime="0.00" timeLoss="43.42" rerouteNo="0" devices="tripinfo_vehicle_0" vType="SUMO_DEFAULT_TYPE" speedFactor="1.06" vaporized=""/>
    <tripinfo id="vehicle_3" depart="15.00" departLane="1si_0" departPos="5.10" departSpeed="0.00" departDelay="0.00" arrival="100.00" arrivalLane="3o_0" arrivalPos="400.00" arrivalSpeed="15.04" duration="85.00" routeLength="803.93" waitingTime="12.00" waitingCount="1" stopTime="0.00" timeLoss="30.50" rerouteNo="0" devices="tripinfo_vehicle_3" vType="SUMO_DEFAULT_TYPE" speedFactor="1.08" vaporized=""/>
    <tripinfo id="vehicle_4" depart="20.00" departLane="1si_0" departPos="5.10" departSpeed="0.00" departDelay="0.00" arrival="103.00" arrivalLane="3o_0" arrivalPos="400.00" arrivalSpeed="14.31" duration="83.00" routeLength="803.93" waitingTime="7.00" waitingCount="1" stopTime="0.00" timeLoss="25.06" rerouteNo="0" devices="tripinfo_vehicle_4" vType="SUMO_DEFAULT_TYPE" speedFactor="1.03" vaporized=""/>
    <tripinfo id="vehicle_6" depart="30.00" departLane="1si_0" departPos="5.10" departSpeed="0.00" departDelay="0.00" arrival="105.00" arrivalLane="4o_0" arrivalPos="400.00" arrivalSpeed="14.53" duration="75.00" routeLength="809.22" waitingTime="0.00" waitingCount="0" stopTime="0.00" timeLoss="18.00" rerouteNo="0" devices="tripinfo_vehicle_6" vType="SUMO_DEFAULT_TYPE" speedFactor="1.05" vaporized=""/>
    <tripinfo id="vehicle_8" depart="40.00" departLane="1si_0" departPos="5.10" departSpeed="0.00" departDelay="0.00" arrival="113.00" arrivalLane="3o_0" arrivalPos="400.00" arrivalSpeed="13.03" duration="73.00" routeLength="803.93" waitingTime="0.00" waitingCount="0" stopTime="0.00" timeLoss="10.46" rerouteNo="0" devices="tripinfo_vehicle_8" vType="SUMO_DEFAULT_TYPE" speedFactor="0.94" vaporized=""/>
    <tripinfo id="vehicle_2" depart="0.00" departLane="4si_0" departPos="5.10" departSpeed="0.00" departDelay="0.00" arrival="131.00" arrivalLane="1o_0" arrivalPos="400.00" arrivalSpeed="14.03" duration="131.00" routeLength="804.19" waitingTime="55.00" waitingCount="1" stopTime="0.00" timeLoss="72.66" rerouteNo="0" devices="tripinfo_vehicle_2" vType="SUMO_DEFAULT_TYPE" speedFactor="1.01" vaporized=""/>
    <tripinfo id="vehicle_7" depart="30.00" departLane="4si_0" departPos="5.10" departSpeed="0.00" departDelay="0.00" arrival="136.00" arrivalLane="1o_0" arrivalPos="400.00" arrivalSpeed="12.31" duration="106.00" routeLength="804.19" waitingTime="24.00" waitingCount="1" stopTime="0.00" timeLoss="38.99" rerouteNo="0" devices="tripinfo_vehicle_7" vType="SUMO_DEFAULT_TYPE" speedFactor="0.89" vaporized=""/>
    <tripinfo id="vehicle_9" depart="40.00" departLane="4si_0" departPos="5.10" departSpeed="0.00" departDelay="0.00" arrival="139.00" arrivalLane="3o_0" arrivalPos="400.00" arrivalSpeed="11.90" duration="99.00" routeLength="809.40" waitingTime="15.00" waitingCount="1" stopTime="0.00" timeLoss="30.03" rerouteNo="0" devices="tripinfo_vehicle_9" vType="SUMO_DEFAULT_TYPE" speedFactor="0.86" vaporized=""/>
    <tripinfo id="vehicle_13" depart="44.00" departLane="4si_0" departPos="5.10" departSpeed="0.00" departDelay="4.00" arrival="140.00" arrivalLane="3o_0" arrivalPos="400.00" arrivalSpeed="12.70" duration="96.00" routeLength="809.40" waitingTime="15.00" waitingCount="1" stopTime="0.00" timeLoss="43.76" rerouteNo="0" devices="tripinfo_vehicle_13" vType="SUMO_DEFAULT_TYPE" speedFactor="1.12" vaporized=""/>
    <tripinfo id="vehicle_11" depart="44.00" departLane="2si_0" departPos="5.10" departSpeed="0.00" departDelay="4.00" arrival="145.00" arrivalLane="4o_0" arrivalPos="400.00" arrivalSpeed="14.26" duration="101.00" routeLength="803.94" waitingTime="25.00" waitingCount="1" stopTime="0.00" timeLoss="42.94" rerouteNo="0" devices="tripinfo_vehicle_11" vType="SUMO_DEFAULT_TYPE" speedFactor="1.03" vaporized=""/>
    <tripinfo id="vehicle_5" depart="20.00" departLane="2si_0" departPos="5.10" departSpeed="0.00" departDelay="0.00" arrival="147.00" arrivalLane="1o_0" arrivalPos="400.00" arrivalSpeed="11.54" duration="127.00" routeLength="809.48" waitingTime="42.00" waitingCount="1" stopTime="0.00" timeLoss="56.60" rerouteNo="0" devices="tripinfo_vehicle_5" vType="SUMO_DEFAULT_TYPE" speedFactor="0.83" vaporized=""/>
    <tripinfo id="vehicle_14" depart="48.00" departLane="2si_0" departPos="5.10" departSpeed="0.00" departDelay="8.00" arrival="148.00" arrivalLane="3o_0" arrivalPos="400.00" arrivalSpeed="13.77" duration="100.00" routeLength="809.19" waitingTime="22.00" waitingCount="1" stopTime="0.00" timeLoss="40.04" rerouteNo="0" devices="tripinfo_vehicle_14" vType="SUMO_DEFAULT_TYPE" speedFactor="0.99" vaporized=""/>
    <tripinfo id="vehicle_10" depart="40.00" departLane="2si_0" departPos="5.10" departSpeed="0.00" departDelay="0.00" arrival="149.00" arrivalLane="1o_0" arrivalPos="400.00" arrivalSpeed="13.14" duration="109.00" routeLength="809.48" waitingTime="29.00" waitingCount="1" stopTime="0.00" timeLoss="54.90" rerouteNo="0" devices="tripinfo_vehicle_10" vType="SUMO_DEFAULT_TYPE" speedFactor="1.09" vaporized=""/>
    <tripinfo id="vehicle_18" depart="85.00" departLane="2si_0" departPos="5.10" departSpeed="0.00" departDelay="0.00" arrival="155.00" arrivalLane="1o_0" arrivalPos="400.00" arrivalSpeed="13.00" duration="70.00" routeLength="809.48" waitingTime="0.00" waitingCount="0" stopTime="0.00" timeLoss="7.63" rerouteNo="0" devices="tripinfo_vehicle_18" vType="SUMO_DEFAULT_TYPE" speedFactor="0.94" vaporized=""/>
    <tripinfo id="vehicle_21" depart="89.00" departLane="2si_0" departPos="5.10" departSpeed="0.00" departDelay="4.00" arrival="159.00" arrivalLane="4o_0" arrivalPos="400.00" arrivalSpeed="14.03" duration="70.00" routeLength="803.94" waitingTime="0.00" waitingCount="0" stopTime="0.00" timeLoss="11.60" rerouteNo="0" devices="tripinfo_vehicle_21" vType="SUMO_DEFAULT_TYPE" speedFactor="1.01" vaporized=""/>
    <tripinfo id="vehicle_12" depart="40.00" departLane="3si_0" departPos="5.10" departSpeed="0.00" departDelay="0.00" arrival="173.00" arrivalLane="1o_0" arrivalPos="400.00" arrivalSpeed="14.54" duration="133.00" routeLength="809.23" waitingTime="58.00" waitingCount="1" stopTime="0.00" timeLoss="75.93" rerouteNo="0" devices="tripinfo_vehicle_12" vType="SUMO_DEFAULT_TYPE" speedFactor="1.05" vaporized=""/>
    <tripinfo id="vehicle_19" depart="85.00" departLane="3si_0" departPos="5.10" departSpeed="0.00" departDelay="0.00" arrival="173.00" arrivalLane="2o_0" arrivalPos="400.00" arrivalSpeed="16.09" duration="88.00" routeLength="804.03" waitingTime="17.00" waitingCount="1" stopTime="0.00" timeLoss="37.22" rerouteNo="0" devices="tripinfo_vehicle_19" vType="SUMO_DEFAULT_TYPE" speedFactor="1.16" vaporized=""/>
    <tripinfo id="vehicle_15" depart="44.00" departLane="3si_0" departPos="5.10" departSpeed="0.00" departDelay="4.00" arrival="177.00" arrivalLane="1o_0" arrivalPos="400.00" arrivalSpeed="12.87" duration="133.00" routeLength="809.23" waitingTime="53.00" waitingCount="1" stopTime="0.00" timeLoss="68.98" rerouteNo="0" devices="tripinfo_vehicle_15" vType="SUMO_DEFAULT_TYPE" speedFactor="0.93" vaporized=""/>
    <tripinfo id="vehicle_20" depart="89.00" departLane="3si_0" departPos="5.10" departSpeed="0.00" departDelay="4.00" arrival="178.00" arrivalLane="1o_0" arrivalPos="400.00" arrivalSpeed="14.14" duration="89.00" routeLength="809.23" waitingTime="13.00" waitingCount="1" stopTime="0.00" timeLoss="31.06" rerouteNo="0" devices="tripinfo_vehicle_20" vType="SUMO_DEFAULT_TYPE" speedFactor="1.02" vaporized=""/>
    <tripinfo id="vehicle_24" depart="115.00" departLane="3si_0" departPos="5.10" departSpeed="0.00" departDelay="0.00" arrival="193.00" arrivalLane="4o_0" arrivalPos="400.00" arrivalSpeed="11.47" duration="78.00" routeLength="809.41" waitingTime="0.00" waitingCount="0" stopTime="0.00" timeLoss="6.68" rerouteNo="0" devices="tripinfo_vehicle_24" vType="SUMO_DEFAULT_TYPE" speedFactor="0.83" vaporized=""/>
    <tripinfo id="vehicle_25" depart="119.00" departLane="3si_0" departPos="5.10" departSpeed="0.00" departDelay="4.00" arrival="194.00" arrivalLane="4o_0" arrivalPos="400.00" arrivalSpeed="12.12" duration="75.00" routeLength="809.41" waitingTime="0.00" waitingCount="0" stopTime="0.00" timeLoss="8.04" rerouteNo="0" devices="tripinfo_vehicle_25" vType="SUMO_DEFAULT_TYPE" speedFactor="0.87" vaporized=""/>
    <tripinfo id="vehicle_17" depart="85.00" departLane="1si_0" departPos="5.10" departSpeed="0.00" departDelay="0.00" arrival="206.00" arrivalLane="4o_0" arrivalPos="400.00" arrivalSpeed="13.08" duration="121.00" routeLength="809.22" waitingTime="42.00" waitingCount="1" stopTime="0.00" timeLoss="57.95" rerouteNo="0" devices="tripinfo_vehicle_17" vType="SUMO_DEFAULT_TYPE" speedFactor="0.94" vaporized=""/>
    <tripinfo id="vehicle_22" depart="110.00" departLane="1si_0" departPos="5.10" departSpeed="0.00" departDelay="0.00" arrival="207.00" arrivalLane="2o_0" arrivalPos="400.00" arrivalSpeed="13.54" duration="97.00" routeLength="809.36" waitingTime="19.00" waitingCount="1" stopTime="0.00" timeLoss="36.40" rerouteNo="0" devices="tripinfo_vehicle_22" vType="SUMO_DEFAULT_TYPE" speedFactor="0.98" vaporized=""/>
    <tripinfo id="vehicle_23" depart="115.00" departLane="1si_0" departPos="5.10" departSpeed="0.00" departDelay="0.00" arrival="210.00" arrivalLane="3o_0" arrivalPos="400.00" arrivalSpeed="12.36" duration="95.00" routeLength="803.93" waitingTime="14.00" waitingCount="1" stopTime="0.00" timeLoss="28.97" rerouteNo="0" devices="tripinfo_vehicle_23" vType="SUMO_DEFAULT_TYPE" speedFactor="0.89" vaporized=""/>
    <tripinfo id="vehicle_16" depart="48.00" departLane="4si_0" departPos="5.10" departSpeed="0.00" departDelay="8.00" arrival="219.00" arrivalLane="2o_0" arrivalPos="400.00" arrivalSpeed="12.20" duration="171.00" routeLength="809.09" waitingTime="82.00" waitingCount="2" stopTime="0.00" timeLoss="103.18" rerouteNo="0" devices="tripinfo_vehicle_16" vType="SUMO_DEFAULT_TYPE" speedFactor="0.88" vaporized=""/>
    <tripinfo id="vehicle_26" depart="115.00" departLane="4si_0" departPos="5.10" departSpeed="0.00" departDelay="0.00" arrival="219.00" arrivalLane="3o_0" arrivalPos="400.00" arrivalSpeed="12.74" duration="104.00" routeLength="809.40" waitingTime="24.00" waitingCount="1" stopTime="0.00" timeLoss="40.10" rerouteNo="0" devices="tripinfo_vehicle_26" vType="SUMO_DEFAULT_TYPE" speedFactor="0.92" vaporized=""/>
    <tripinfo id="vehicle_28" depart="135.00" departLane="4si_0" departPos="5.10" departSpeed="0.00" departDelay="0.00" arrival="220.00" arrivalLane="2o_0" arrivalPos="400.00" arrivalSpeed="13.00" duration="85.00" routeLength="809.09" waitingTime="9.00" waitingCount="1" stopTime="0.00" timeLoss="32.49" rerouteNo="0" devices="tripinfo_vehicle_28" vType="SUMO_DEFAULT_TYPE" speedFactor="1.13" vaporized=""/>
    <tripinfo id="vehicle_34" depart="150.00" departLane="4si_0" departPos="5.10" departSpeed="0.00" departDelay="0.00" arrival="221.00" arrivalLane="3o_0" arrivalPos="400.00" arrivalSpeed="13.82" duration="71.00" routeLength="809.40" waitingTime="0.00" waitingCount="0" stopTime="0.00" timeLoss="11.53" rerouteNo="0" devices="tripinfo_vehicle_34" vType="SUMO_DEFAULT_TYPE" speedFactor="0.99" vaporized=""/>
    <tripinfo id="vehicle_31" depart="150.00" departLane="3si_0" departPos="5.10" departSpeed="0.00" departDelay="0.00" arrival="255.00" arrivalLane="2o_0" arrivalPos="400.00" arrivalSpeed="16.04" duration="105.00" routeLength="804.03" waitingTime="33.00" waitingCount="1" stopTime="0.00" timeLoss="53.45" rerouteNo="0" devices="tripinfo_vehicle_31" vType="SUMO_DEFAULT_TYPE" speedFactor="1.15" vaporized=""/>
    <tripinfo id="vehicle_33" depart="158.00" departLane="3si_0" departPos="5.10" departSpeed="0.00" departDelay="8.00" arrival="257.00" arrivalLane="2o_0" arrivalPos="400.00" arrivalSpeed="16.28" duration="99.00" routeLength="804.03" waitingTime="28.00" waitingCount="1" stopTime="0.00" timeLoss="48.62" rerouteNo="0" devices="tripinfo_vehicle_33" vType="SUMO_DEFAULT_TYPE" speedFactor="1.17" vaporized=""/>
    <tripinfo id="vehicle_32" depart="154.00" departLane="3si_0" departPos="5.10" departSpeed="0.00" departDelay="4.00" arrival="259.00" arrivalLane="1o_0" arrivalPos="400.00" arrivalSpeed="13.96" duration="105.00" routeLength="809.23" waitingTime="29.00" waitingCount="1" stopTime="0.00" timeLoss="46.05" rerouteNo="0" devices="tripinfo_vehicle_32" vType="SUMO_DEFAULT_TYPE" speedFactor="1.01" vaporized=""/>
    <tripinfo id="vehicle_35" depart="162.00" departLane="3si_0" departPos="5.10" departSpeed="0.00" departDelay="12.00" arrival="262.00" arrivalLane="4o_0" arrivalPos="400.00" arrivalSpeed="14.16" duration="100.00" routeLength="809.41" waitingTime="24.00" waitingCount="1" stopTime="0.00" timeLoss="42.03" rerouteNo="0" devices="tripinfo_vehicle_35" vType="SUMO_DEFAULT_TYPE" speedFactor="1.02" vaporized=""/>
    <tripinfo id="vehicle_40" depart="180.00" departLane="3si_0" departPos="5.10" departSpeed="0.00" departDelay="0.00" arrival="263.00" arrivalLane="4o_0" arrivalPos="400.00" arrivalSpeed="14.31" duration="83.00" routeLength="809.41" waitingTime="7.00" waitingCount="1" stopTime="0.00" timeLoss="26.11" rerouteNo="0" devices="tripinfo_vehicle_40" vType="SUMO_DEFAULT_TYPE" speedFactor="1.03" vaporized=""/>
    <tripinfo id="vehicle_42" depart="184.00" departLane="3si_0" departPos="5.10" departSpeed="0.00" departDelay="4.00" arrival="264.00" arrivalLane="1o_0" arrivalPos="400.00" arrivalSpeed="15.17" duration="80.00" routeLength="809.23" waitingTime="6.00" waitingCount="1" stopTime="0.00" timeLoss="25.67" rerouteNo="0" devices="tripinfo_vehicle_42" vType="SUMO_DEFAULT_TYPE" speedFactor="1.09" vaporized=""/>
    <tripinfo id="vehicle_44" depart="188.00" departLane="3si_0" departPos="5.10" departSpeed="0.00" departDelay="8.00" arrival="267.00" arrivalLane="2o_0" arrivalPos="400.00" arrivalSpeed="14.49" duration="79.00" routeLength="804.03" waitingTime="3.00" waitingCount="1" stopTime="0.00" timeLoss="22.68" rerouteNo="0" devices="tripinfo_vehicle_44" vType="SUMO_DEFAULT_TYPE" speedFactor="1.04" vaporized=""/>
    <tripinfo id="vehicle_45" depart="192.00" departLane="3si_0" departPos="5.10" departSpeed="0.00" departDelay="12.00" arrival="268.00" arrivalLane="1o_0" arrivalPos="400.00" arrivalSpeed="15.11" duration="76.00" routeLength="809.23" waitingTime="1.00" waitingCount="1" stopTime="0.00" timeLoss="21.16" rerouteNo="0" devices="tripinfo_vehicle_45" vType="SUMO_DEFAULT_TYPE" speedFactor="1.09" vaporized=""/>
    <tripinfo id="vehicle_30" depart="150.00" departLane="1si_0" departPos="5.10" departSpeed="0.00" departDelay="0.00" arrival="278.00" arrivalLane="2o_0" arrivalPos="400.00" arrivalSpeed="16.37" duration="128.00" routeLength="809.36" waitingTime="57.00" waitingCount="1" stopTime="0.00" timeLoss="78.48" rerouteNo="0" devices="tripinfo_vehicle_30" vType="SUMO_DEFAULT_TYPE" speedFactor="1.18" vaporized=""/>
    <tripinfo id="vehicle_27" depart="135.00" departLane="1si_0" departPos="5.10" departSpeed="0.00" departDelay="0.00" arrival="280.00" arrivalLane="4o_0" arrivalPos="400.00" arrivalSpeed="13.18" duration="145.00" routeLength="809.22" waitingTime="63.00" waitingCount="1" stopTime="0.00" timeLoss="82.14" rerouteNo="0" devices="tripinfo_vehicle_27" vType="SUMO_DEFAULT_TYPE" speedFactor="0.95" vaporized=""/>
    <tripinfo id="vehicle_29" depart="145.00" departLane="1si_0" departPos="5.10" departSpeed="0.00" departDelay="0.00" arrival="282.00" arrivalLane="4o_0" arrivalPos="400.00" arrivalSpeed="12.94" duration="137.00" routeLength="809.22" waitingTime="57.00" waitingCount="1" stopTime="0.00" timeLoss="72.95" rerouteNo="0" devices="tripinfo_vehicle_29" vType="SUMO_DEFAULT_TYPE" speedFactor="0.93" vaporized=""/>
    <tripinfo id="vehicle_36" depart="180.00" departLane="1si_0" departPos="5.10" departSpeed="0.00" departDelay="0.00" arrival="284.00" arrivalLane="3o_0" arrivalPos="400.00" arrivalSpeed="13.52" duration="104.00" routeLength="803.93" waitingTime="26.00" waitingCount="1" stopTime="0.00" timeLoss="42.92" rerouteNo="0" devices="tripinfo_vehicle_36" vType="SUMO_DEFAULT_TYPE" speedFactor="0.97" vaporized=""/>
    <tripinfo id="vehicle_37" depart="180.00" departLane="4si_0" departPos="5.10" departSpeed="0.00" departDelay="0.00" arrival="317.00" arrivalLane="3o_0" arrivalPos="400.00" arrivalSpeed="16.39" duration="137.00" routeLength="809.40" waitingTime="65.00" waitingCount="1" stopTime="0.00" timeLoss="86.71" rerouteNo="0" devices="tripinfo_vehicle_37" vType="SUMO_DEFAULT_TYPE" speedFactor="1.18" vaporized=""/>
    <tripinfo id="vehicle_38" depart="184.00" departLane="4si_0" departPos="5.10" departSpeed="0.00" departDelay="4.00" arrival="319.00" arrivalLane="1o_0" arrivalPos="400.00" arrivalSpeed="15.31" duration="135.00" routeLength="804.19" waitingTime="62.00" waitingCount="1" stopTime="0.00" timeLoss="81.18" rerouteNo="0" devices="tripinfo_vehicle_38" vType="SUMO_DEFAULT_TYPE" speedFactor="1.10" vaporized=""/>
    <tripinfo id="vehicle_43" depart="192.00" departLane="4si_0" departPos="5.10" departSpeed="0.00" departDelay="12.00" arrival="323.00" arrivalLane="1o_0" arrivalPos="400.00" arrivalSpeed="14.41" duration="131.00" routeLength="804.19" waitingTime="56.00" waitingCount="1" stopTime="0.00" timeLoss="73.93" rerouteNo="0" devices="tripinfo_vehicle_43" vType="SUMO_DEFAULT_TYPE" speedFactor="1.04" vaporized=""/>
    <tripinfo id="vehicle_41" depart="188.00" departLane="4si_0" departPos="5.10" departSpeed="0.00" departDelay="8.00" arrival="324.00" arrivalLane="3o_0" arrivalPos="400.00" arrivalSpeed="13.29" duration="136.00" routeLength="809.40" waitingTime="57.00" waitingCount="1" stopTime="0.00" timeLoss="74.24" rerouteNo="0" devices="tripinfo_vehicle_41" vType="SUMO_DEFAULT_TYPE" speedFactor="0.96" vaporized=""/>
    <tripinfo id="vehicle_46" depart="196.00" departLane="4si_0" departPos="5.10" departSpeed="0.00" departDelay="16.00" arrival="326.00" arrivalLane="3o_0" arrivalPos="400.00" arrivalSpeed="13.85" duration="130.00" routeLength="809.40" waitingTime="53.00" waitingCount="1" stopTime="0.00" timeLoss="70.76" rerouteNo="0" devices="tripinfo_vehicle_46" vType="SUMO_DEFAULT_TYPE" speedFactor="1.00" vaporized=""/>
    <tripinfo id="vehicle_51" depart="200.00" departLane="4si_0" departPos="5.10" departSpeed="0.00" departDelay="20.00" arrival="327.00" arrivalLane="3o_0" arrivalPos="400.00" arrivalSpeed="14.65" duration="127.00" routeLength="809.40" waitingTime="52.00" waitingCount="1" stopTime="0.00" timeLoss="76.83" rerouteNo="0" devices="tripinfo_vehicle_51" vType="SUMO_DEFAULT_TYPE" speedFactor="1.17" vaporized=""/>
    <tripinfo id="vehicle_55" depart="204.00" departLane="4si_0" departPos="5.10" departSpeed="0.00" departDelay="24.00" arrival="330.00" arrivalLane="1o_0" arrivalPos="400.00" arrivalSpeed="13.83" duration="126.00" routeLength="804.19" waitingTime="48.00" waitingCount="1" stopTime="0.00" timeLoss="67.05" rerouteNo="0" devices="tripinfo_vehicle_55" vType="SUMO_DEFAULT_TYPE" speedFactor="1.00" vaporized=""/>
    <tripinfo id="vehicle_58" depart="285.00" departLane="4si_0" departPos="5.10" departSpeed="0.00" departDelay="0.00" arrival="351.00" arrivalLane="3o_0" arrivalPos="400.00" arrivalSpeed="14.22" duration="66.00" routeLength="809.40" waitingTime="0.00" waitingCount="0" stopTime="0.00" timeLoss="8.39" rerouteNo="0" devices="tripinfo_vehicle_58" vType="SUMO_DEFAULT_TYPE" speedFactor="1.02" vaporized=""/>
    <tripinfo id="vehicle_39" depart="180.00" departLane="2si_0" departPos="5.10" departSpeed="0.00" departDelay="0.00" arrival="363.00" arrivalLane="3o_0" arrivalPos="400.00" arrivalSpeed="12.51" duration="183.00" routeLength="809.19" waitingTime="102.00" waitingCount="1" stopTime="0.00" timeLoss="117.07" rerouteNo="0" devices="tripinfo_vehicle_39" vType="SUMO_DEFAULT_TYPE" speedFactor="0.90" vaporized=""/>
    <tripinfo id="vehicle_53" depart="192.00" departLane="2si_0" departPos="5.10" departSpeed="0.00" departDelay="12.00" arrival="363.00" arrivalLane="4o_0" arrivalPos="400.00" arrivalSpeed="15.22" duration="171.00" routeLength="803.94" waitingTime="96.00" waitingCount="1" stopTime="0.00" timeLoss="116.60" rerouteNo="0" devices="tripinfo_vehicle_53" vType="SUMO_DEFAULT_TYPE" speedFactor="1.10" vaporized=""/>
    <tripinfo id="vehicle_48" depart="184.00" departLane="2si_0" departPos="5.10" departSpeed="0.00" departDelay="4.00" arrival="365.00" arrivalLane="3o_0" arrivalPos="400.00" arrivalSpeed="12.18" duration="181.00" routeLength="809.19" waitingTime="99.00" waitingCount="1" stopTime="0.00" timeLoss="113.56" rerouteNo="0" devices="tripinfo_vehicle_48" vType="SUMO_DEFAULT_TYPE" speedFactor="0.88" vaporized=""/>
    <tripinfo id="vehicle_54" depart="196.00" departLane="2si_0" departPos="5.10" departSpeed="0.00" departDelay="16.00" arrival="367.00" arrivalLane="3o_0" arrivalPos="400.00" arrivalSpeed="13.93" duration="171.00" routeLength="809.19" waitingTime="94.00" waitingCount="1" stopTime="0.00" timeLoss="112.27" rerouteNo="0" devices="tripinfo_vehicle_54" vType="SUMO_DEFAULT_TYPE" speedFactor="1.00" vaporized=""/>
    <tripinfo id="vehicle_49" depart="188.00" departLane="2si_0" departPos="5.10" departSpeed="0.00" departDelay="8.00" arrival="368.00" arrivalLane="1o_0" arrivalPos="400.00" arrivalSpeed="11.81" duration="180.00" routeLength="809.48" waitingTime="96.00" waitingCount="1" stopTime="0.00" timeLoss="110.65" rerouteNo="0" devices="tripinfo_vehicle_49" vType="SUMO_DEFAULT_TYPE" speedFactor="0.85" vaporized=""/>
    <tripinfo id="vehicle_60" depart="285.00" departLane="2si_0" departPos="5.10" departSpeed="0.00" departDelay="0.00" arrival="369.00" arrivalLane="4o_0" arrivalPos="400.00" arrivalSpeed="15.04" duration="84.00" routeLength="803.94" waitingTime="9.00" waitingCount="1" stopTime="0.00" timeLoss="29.79" rerouteNo="0" devices="tripinfo_vehicle_60" vType="SUMO_DEFAULT_TYPE" speedFactor="1.08" vaporized=""/>
    <tripinfo id="vehicle_56" depart="200.00" departLane="2si_0" departPos="5.10" departSpeed="0.00" departDelay="20.00" arrival="372.00" arrivalLane="1o_0" arrivalPos="400.00" arrivalSpeed="12.49" duration="172.00" routeLength="809.48" waitingTime="89.00" waitingCount="1" stopTime="0.00" timeLoss="106.46" rerouteNo="0" devices="tripinfo_vehicle_56" vType="SUMO_DEFAULT_TYPE" speedFactor="0.90" vaporized=""/>
    <tripinfo id="vehicle_62" depart="305.00" departLane="2si_0" departPos="5.10" departSpeed="0.00" departDelay="0.00" arrival="375.00" arrivalLane="4o_0" arrivalPos="400.00" arrivalSpeed="14.11" duration="70.00" routeLength="803.94" waitingTime="0.00" waitingCount="0" stopTime="0.00" timeLoss="11.77" rerouteNo="0" devices="tripinfo_vehicle_62" vType="SUMO_DEFAULT_TYPE" speedFactor="1.02" vaporized=""/>
    <tripinfo id="vehicle_63" depart="309.00" departLane="2si_0" departPos="5.10" departSpeed="0.00" departDelay="4.00" arrival="380.00" arrivalLane="4o_0" arrivalPos="400.00" arrivalSpeed="13.71" duration="71.00" routeLength="803.94" waitingTime="0.00" waitingCount="0" stopTime="0.00" timeLoss="10.95" rerouteNo="0" devices="tripinfo_vehicle_63" vType="SUMO_DEFAULT_TYPE" speedFactor="0.99" vaporized=""/>
    <tripinfo id="vehicle_47" depart="196.00" departLane="3si_0" departPos="5.10" departSpeed="0.00" departDelay="16.00" arrival="404.00" arrivalLane="1o_0" arrivalPos="400.00" arrivalSpeed="12.51" duration="208.00" routeLength="809.23" waitingTime="123.00" waitingCount="1" stopTime="0.00" timeLoss="142.04" rerouteNo="0" devices="tripinfo_vehicle_47" vType="SUMO_DEFAULT_TYPE" speedFactor="0.90" vaporized=""/>
    <tripinfo id="vehicle_52" depart="204.00" departLane="3si_0" departPos="5.10" departSpeed="0.00" departDelay="24.00" arrival="404.00" arrivalLane="4o_0" arrivalPos="400.00" arrivalSpeed="14.12" duration="200.00" routeLength="809.41" waitingTime="123.00" waitingCount="1" stopTime="0.00" timeLoss="142.37" rerouteNo="0" devices="tripinfo_vehicle_52" vType="SUMO_DEFAULT_TYPE" speedFactor="1.02" vaporized=""/>
    <tripinfo id="vehicle_50" depart="200.00" departLane="3si_0" departPos="5.10" departSpeed="0.00" departDelay="20.00" arrival="407.00" arrivalLane="1o_0" arrivalPos="400.00" arrivalSpeed="11.87" duration="207.00" routeLength="809.23" waitingTime="123.00" waitingCount="1" stopTime="0.00" timeLoss="137.51" rerouteNo="0" devices="tripinfo_vehicle_50" vType="SUMO_DEFAULT_TYPE" speedFactor="0.85" vaporized=""/>
    <tripinfo id="vehicle_64" depart="305.00" departLane="3si_0" departPos="5.10" departSpeed="0.00" departDelay="0.00" arrival="408.00" arrivalLane="4o_0" arrivalPos="400.00" arrivalSpeed="13.02" duration="103.00" routeLength="809.41" waitingTime="23.00" waitingCount="1" stopTime="0.00" timeLoss="39.95" rerouteNo="0" devices="tripinfo_vehicle_64" vType="SUMO_DEFAULT_TYPE" speedFactor="0.94" vaporized=""/>
    <tripinfo id="vehicle_57" depart="285.00" departLane="1si_0" departPos="5.10" departSpeed="0.00" departDelay="0.00" arrival="410.00" arrivalLane="4o_0" arrivalPos="400.00" arrivalSpeed="15.87" duration="125.00" routeLength="809.22" waitingTime="53.00" waitingCount="1" stopTime="0.00" timeLoss="73.10" rerouteNo="0" devices="tripinfo_vehicle_57" vType="SUMO_DEFAULT_TYPE" speedFactor="1.14" vaporized=""/>
    <tripinfo id="vehicle_61" depart="305.00" departLane="1si_0" departPos="5.10" departSpeed="0.00" departDelay="0.00" arrival="412.00" arrivalLane="2o_0" arrivalPos="400.00" arrivalSpeed="15.55" duration="107.00" routeLength="809.36" waitingTime="34.00" waitingCount="1" stopTime="0.00" timeLoss="54.34" rerouteNo="0" devices="tripinfo_vehicle_61" vType="SUMO_DEFAULT_TYPE" speedFactor="1.12" vaporized=""/>
    <tripinfo id="vehicle_65" depart="325.00" departLane="1si_0" departPos="5.10" departSpeed="0.00" departDelay="0.00" arrival="419.00" arrivalLane="3o_0" arrivalPos="400.00" arrivalSpeed="12.26" duration="94.00" routeLength="803.93" waitingTime="11.00" waitingCount="1" stopTime="0.00" timeLoss="26.67" rerouteNo="0" devices="tripinfo_vehicle_65" vType="SUMO_DEFAULT_TYPE" speedFactor="0.88" vaporized=""/>
    <tripinfo id="vehicle_66" depart="330.00" departLane="1si_0" departPos="5.10" departSpeed="0.00" departDelay="0.00" arrival="420.00" arrivalLane="3o_0" arrivalPos="400.00" arrivalSpeed="12.60" duration="90.00" routeLength="803.93" waitingTime="9.00" waitingCount="1" stopTime="0.00" timeLoss="24.94" rerouteNo="0" devices="tripinfo_vehicle_66" vType="SUMO_DEFAULT_TYPE" speedFactor="0.91" vaporized=""/>
    <tripinfo id="vehicle_71" depart="355.00" departLane="1si_0" departPos="5.10" departSpeed="0.00" departDelay="0.00" arrival="427.00" arrivalLane="3o_0" arrivalPos="400.00" arrivalSpeed="13.51" duration="72.00" routeLength="803.93" waitingTime="0.00" waitingCount="0" stopTime="0.00" timeLoss="10.86" rerouteNo="0" devices="tripinfo_vehicle_71" vType="SUMO_DEFAULT_TYPE" speedFactor="0.97" vaporized=""/>
    <tripinfo id="vehicle_59" depart="289.00" departLane="4si_0" departPos="5.10" departSpeed="0.00" departDelay="4.00" arrival="434.00" arrivalLane="3o_0" arrivalPos="400.00" arrivalSpeed="13.47" duration="145.00" routeLength="809.40" waitingTime="67.00" waitingCount="1" stopTime="0.00" timeLoss="84.67" rerouteNo="0" devices="tripinfo_vehicle_59" vType="SUMO_DEFAULT_TYPE" speedFactor="0.97" vaporized=""/>
    <tripinfo id="vehicle_70" depart="330.00" departLane="4si_0" departPos="5.10" departSpeed="0.00" departDelay="0.00" arrival="435.00" arrivalLane="2o_0" arrivalPos="400.00" arrivalSpeed="14.21" duration="105.00" routeLength="809.09" waitingTime="29.00" waitingCount="1" stopTime="0.00" timeLoss="46.70" rerouteNo="0" devices="tripinfo_vehicle_70" vType="SUMO_DEFAULT_TYPE" speedFactor="1.02" vaporized=""/>
    <tripinfo id="vehicle_73" depart="355.00" departLane="4si_0" departPos="5.10" departSpeed="0.00" departDelay="0.00" arrival="436.00" arrivalLane="3o_0" arrivalPos="400.00" arrivalSpeed="14.66" duration="81.00" routeLength="809.40" waitingTime="6.00" waitingCount="1" stopTime="0.00" timeLoss="25.05" rerouteNo="0" devices="tripinfo_vehicle_73" vType="SUMO_DEFAULT_TYPE" speedFactor="1.06" vaporized=""/>
    <tripinfo id="vehicle_68" depart="334.00" departLane="3si_0" departPos="5.10" departSpeed="0.00" departDelay="4.00" arrival="466.00" arrivalLane="1o_0" arrivalPos="400.00" arrivalSpeed="14.44" duration="132.00" routeLength="809.23" waitingTime="51.00" waitingCount="1" stopTime="0.00" timeLoss="75.29" rerouteNo="0" devices="tripinfo_vehicle_68" vType="SUMO_DEFAULT_TYPE" speedFactor="1.04" vaporized=""/>