<?xml version="1.0" encoding="UTF-8"?>

<!-- generated on 04/03/19 19:38:37 by Eclipse SUMO GUI Version 1.1.0
<configuration xmlns:xsi="http://www.w3.org/2001/XMLSchema-instance" xsi:noNamespaceSchemaLocation="http://sumo.dlr.de/xsd/sumoConfiguration.xsd">

    <input>
        <net-file value="C:\Users\jaydutt\Desktop\mp3\cross.net.xml"/>
        <route-files value="C:\Users\jaydutt\Desktop\mp3\input_routes.rou.xml"/>
        <additional-files value="C:\Users\jaydutt\Desktop\mp3\cross.add.xml"/>
    </input>

    <time>
        <begin value="0"/>
        <end value="2000"/>
    </time>

</configuration>
-->

<detector xmlns:xsi="http://www.w3.org/2001/XMLSchema-instance" xsi:noNamespaceSchemaLocation="http://sumo.dlr.de/xsd/det_e1_file.xsd">
</detector>
